3
 energy: -5.070544161623 gnorm: 0.000687378157 xtb: 6.7.1 (edcfbbe)
O           -0.00175801869564        0.37959628353265       -0.00000000000000
H           -0.77153728124772       -0.19322152217030        0.00000000000000
H            0.77329529994336       -0.18637476136236        0.00000000000000
