3
 energy: -5.069274829363 gnorm: 0.039830873922 xtb: 6.7.1 (edcfbbe)
O           -0.00570300000000        0.38515900000000        0.00000000000000
H           -0.79607800000000       -0.19467500000000        0.00000000000000
H            0.80178100000000       -0.19048400000000        0.00000000000000
3
 energy: -5.070468614997 gnorm: 0.010722563637 xtb: 6.7.1 (edcfbbe)
O           -0.00286872942338        0.38172335191296       -0.00000000000000
H           -0.77613897477490       -0.19390815375129        0.00000000000000
H            0.77900770419828       -0.18781519816167        0.00000000000000
3
 energy: -5.070543239034 gnorm: 0.001062161943 xtb: 6.7.1 (edcfbbe)
O           -0.00158729076937        0.37970625600709       -0.00000000000000
H           -0.77023816452832       -0.19333523319232        0.00000000000000
H            0.77182545529769       -0.18637102281477        0.00000000000000
3
 energy: -5.070544161620 gnorm: 0.000688601826 xtb: 6.7.1 (edcfbbe)
O           -0.00175801869564        0.37959628353265       -0.00000000000000
H           -0.77153728124772       -0.19322152217030        0.00000000000000
H            0.77329529994336       -0.18637476136236        0.00000000000000
