32
 energy: -63.375557547214 gnorm: 0.000642484168 xtb: 6.7.1 (edcfbbe)
N           -0.98950368520569        1.95142145608272       -1.25349980606717
C           -1.47473663474366        1.47553911346636       -0.32986490643758
C           -2.14863599316200        0.92625719717667        0.78182943856635
C           -2.52942004629552       -0.37538542208811        0.86677947413690
C           -2.23944307608900       -1.43127960465803       -0.04239854773438
S           -3.42448488251556       -2.70949900812707       -0.18284908605005
C           -2.52082736554274       -3.46530410689060       -1.42106246127108
C           -1.36369970612715       -2.80636070433679       -1.69600494428288
C           -1.17680923893833       -1.64698689102714       -0.90821609190370
C            0.06209826504367       -0.87194331111500       -0.93976575519387
C            0.65702401621545       -0.54794998968414       -2.16594795616501
C            1.82501881528211        0.17577628815596       -2.21605286085857
C            2.43525794849698        0.59047306345680       -1.03282342032000
O            3.57845648845171        1.29859529700575       -1.12365372518850
C            4.24843265223965        1.75768723761643       -0.02017450831731
O            5.26804569402237        2.37478212426554       -0.18889623030293
C            3.66465270849746        1.44150746195851        1.27769633802645
C            2.53325235580725        0.72411625969065        1.38662522910865
C            1.86266435366750        0.26087835377918        0.20673596264148
C            0.67937943305557       -0.47611148085638        0.23484380842527
C           -2.49873185759773        1.90000148502598        1.84011826893608
O           -2.22577456909983        3.07167039857989        1.81442487862830
O           -3.15428891430893        1.33844567087188        2.87273349233181
H           -3.17546832804802       -0.63830610784918        1.69568019906394
H           -2.89425656576063       -4.36129731573413       -1.87661472980815
H           -0.64571429248288       -3.14392699848083       -2.42151641218814
H            0.17203387590555       -0.84447086654649       -3.08290068185773
H            2.28022099078349        0.44329562005011       -3.15568556667676
H            4.20150523303189        1.81864003119569        2.13302531033890
H            2.10403358606753        0.48900925399810        2.35049064302638
H            0.25182312556088       -0.74012216101317        1.19150652745931
H           -3.36210538621658        2.02084665602836        3.52951311993102
