48
 energy: -96.100152656641 gnorm: 0.000452018469 xtb: 6.7.1 (edcfbbe)
O           -3.70536636127438       -0.14350262688279        1.98449402980223
C           -3.03228144009406        0.81203532768535        1.69216043632172
O           -1.93793356972890        1.16874035747587        2.37645658462521
C           -3.31264611670742        1.74064388405426        0.57470076889060
C           -3.86801169792319        1.34856111269977       -0.57136696219690
C           -4.18459174850851       -0.04229705279277       -0.89959908794674
C           -3.24685241625682       -1.05535717805040       -0.90259344306424
C           -1.82542813117658       -0.73397966469209       -0.64712512397709
C           -1.21392821867680       -1.07354755808246        0.53740869140334
C            0.09418089300573       -0.67591290647454        0.82258102163425
C            0.65977813914165       -0.82169229433516        2.17056415424759
O           -0.01493096921420       -1.14089075427577        3.14042207483909
C            2.06847023391766       -0.48790358227456        2.23734173560385
C            2.72804728321412        0.06796763410183        1.19344689982744
C            4.14425091864604        0.43898727411709        1.21249925146564
C            4.82178467294698        0.69784027797869        2.40193499007960
C            6.15958756998806        1.03878072670718        2.39003599876890
C            6.85676954211482        1.12775619160449        1.19306104975139
O            8.16651052229792        1.45637845817607        1.18673213292348
C            6.17771372130984        0.87517259764172       -0.00989253809443
O            6.91383673995183        0.97830085319114       -1.16384247093973
C            4.84063257012637        0.54107702619055        0.00458575812606
O            2.12531787140241        0.33870544220158        0.01161639065673
C            0.83299641919925       -0.02558527135726       -0.16670346082534
C            0.23988699065793        0.29070249712906       -1.38751476543515
C           -1.08767955742797       -0.02434112867497       -1.61517684441022
O           -1.71452352337765        0.31492219534412       -2.76619402947774
C           -3.60682345108106       -2.39595005058056       -1.16775771529754
C           -4.89022190904492       -2.76613138752053       -1.45285043902435
C           -5.86911405218759       -1.76014904971169       -1.49474656063549
N           -7.16811327633363       -1.89249213947683       -1.76712542776781
S           -7.85912876866546       -0.44495331693256       -1.68792629001228
N           -6.56286707534055        0.42631233047823       -1.31123788229117
C           -5.51277128773318       -0.39181691961528       -1.22623407477097
H           -1.71530537053742        0.49409276923361        3.04493642876818
H           -3.04993131225096        2.77211991144377        0.75440017598594
H           -4.13662084733064        2.07868638087854       -1.32404776948789
H           -1.75936984537207       -1.61819101091738        1.29353850355188
H            2.57844953854764       -0.67830425046072        3.16618097243218
H            4.29814456427764        0.65604822497852        3.34253239656944
H            6.68914210228242        1.24528974837376        3.30567594809067
H            8.47241077677417        1.46960457704984        0.26840694867321
H            6.35398016026579        0.78338624744821       -1.92288481395664
H            4.32713699497185        0.34317169212303       -0.92558973582766
H            0.82292325078625        0.80879150205073       -2.13573344867513
H           -1.10784992598083        0.78997528045389       -3.34779330103731
H           -2.82488421872829       -3.14050797351623       -1.13841571021638
H           -5.16478138487586       -3.79054640418299       -1.64463644765701
