49
 energy: -94.963753690568 gnorm: 0.000299679609 xtb: 6.7.1 (edcfbbe)
O            4.08213629096054       -0.17198712944830        3.85405431211760
P            5.35908628405036       -0.28784530527502        3.15899845028503
O            6.27243842831079       -1.52306029032315        3.68270641715786
O            6.33521930091230        0.95246203896811        3.41490728033537
C            5.27819046359563       -0.49793291355843        1.36830529865098
C            4.07903684052621       -0.43679570929896        0.79067858148152
C            3.78558942721875       -0.56837514014440       -0.61473397942489
C            4.67081025626613       -0.89335939250840       -1.60736095183860
S            3.97696810791535       -0.96420112316240       -3.18647506635058
C            2.44120319113531       -0.54246686398996       -2.52548092920947
S            0.88374655314281       -0.28615959424165       -3.20922362936840
C            0.24618973384273        0.05479809138705       -1.60891339436546
C           -1.14788331796876        0.44875676482088       -1.46218911630557
C           -1.68153244692456        1.37058684345420       -2.35897291308032
C           -2.98368215878608        1.88366119606081       -2.13818320228641
C           -3.60652829147815        2.82395045056444       -2.98345957475166
O           -2.93284797025742        3.21487156227019       -4.09715011359362
C           -4.85993277827131        3.32457052479917       -2.67413751323159
C           -5.51977417613912        2.90985339369642       -1.52264333938689
O           -6.74338294184721        3.43680431705734       -1.26479666944058
C           -4.92711730110894        1.97830147365347       -0.67292745153418
C           -3.67845620016018        1.47070148088578       -0.98409679398544
O           -3.15192450669601        0.55415722706219       -0.13775463964798
C           -1.91780947454380       -0.00589143487292       -0.39195794591314
C           -1.57743478199287       -1.05948472687722        0.53485876574268
C           -0.80180810493433       -2.16664097365335        0.15749229185404
C           -0.50155870738166       -3.16081782227395        1.05786189879971
C           -0.97339439714247       -3.09178818383781        2.36843940408004
O           -0.64439345363852       -4.09298939789492        3.22704533214444
C           -1.77338533100477       -2.01857410764111        2.74765669231501
C           -2.07654858782760       -1.02397943931675        1.84373449213812
C            1.20143868525634       -0.01541367272609       -0.63975960953631
C            2.47299469690488       -0.36363712092160       -1.15010977254296
H            5.70249605190875       -2.16096427505122        4.10943026436193
H            7.24206413251537        0.76549508929219        3.17160819982394
H            6.19184332576187       -0.66537889080227        0.82086784408964
H            3.22832299247606       -0.26079131410326        1.43566452927538
H            5.71541279488320       -1.11218834741048       -1.50821708905356
H           -1.10410340374769        1.73451692203087       -3.19099263077904
H           -3.46350161680711        3.85533040417016       -4.58578909245758
H           -5.34287012405717        4.04540613187366       -3.31672901820555
H           -7.08866164209496        3.07096628950606       -0.44149391516397
H           -5.42754010912434        1.64106898618808        0.22219278289335
H           -0.45934094550014       -2.25740589237002       -0.86091368405585
H            0.09163922263539       -4.01324932981229        0.76741410637540
H           -1.02421169873206       -3.91595610973095        4.09621734757211
H           -2.15489924856040       -1.96515327995254        3.75915699718924
H           -2.69090144453510       -0.19097206010827        2.14778746690021
H            0.99859538105550        0.17720165356758        0.39738427993726
