48
 energy: -96.100152656541 gnorm: 0.000452024555 xtb: 6.7.1 (edcfbbe)
O           -3.70536651851175       -0.14350271843267        1.98449407476855
C           -3.03228159398596        0.81203524437841        1.69216051507894
O           -1.93793376835092        1.16874028832346        2.37645672592529
C           -3.31264619687844        1.74064382979588        0.57470085067460
C           -3.86801168606863        1.34856110821894       -0.57136694180159
C           -4.18459175617773       -0.04229704784105       -0.89959909239840
C           -3.24685243205099       -1.05535718148415       -0.90259334112018
C           -1.82542816035273       -0.73397962079040       -0.64712501628149
C           -1.21392818236010       -1.07354754497260        0.53740875580317
C            0.09418092683883       -0.67591285528804        0.82258105054405
C            0.65977824183978       -0.82169231342057        2.17056414988864
O           -0.01493078022645       -1.14089097111828        3.14042206209726
C            2.06847030802863       -0.48790346023284        2.23734169894053
C            2.72804729185405        0.06796778793510        1.19344684170605
C            4.14425093146519        0.43898742286172        1.21249915763396
C            4.82178456545252        0.69784090355725        2.40193485704138
C            6.15958748024468        1.03878128458626        2.39003585864064
C            6.85676958437088        1.12775617420049        1.19306094390467
O            8.16651058972410        1.45637834556530        1.18673202665855
C            6.17771387815623        0.87517210369993       -0.00989260822790
O            6.91383703003011        0.97829981239071       -1.16384250569438
C            4.84063270082870        0.54107662931622        0.00458569007545
O            2.12531784293846        0.33870557927621        0.01161635262676
C            0.83299638305161       -0.02558514254433       -0.16670343550057
C            0.23988687620890        0.29070269551035       -1.38751468316961
C           -1.08767966991556       -0.02434096652253       -1.61517671575507
O           -1.71452370629559        0.31492243056646       -2.76619384247711
C           -3.60682346187234       -2.39595006550786       -1.16775755235602
C           -4.89022190700134       -2.76613139814461       -1.45285034392506
C           -5.86911402764767       -1.76014904560070       -1.49474662414435
N           -7.16811322382079       -1.89249212990454       -1.76712563130850
S           -7.85912869461140       -0.44495328524047       -1.68792666622835
N           -6.56286703568349        0.42631235575664       -1.31123815444732
C           -5.51277126907647       -0.39181690687129       -1.22623417895554
H           -1.71530560130376        0.49409273084705        3.04493660287138
H           -3.04993136716926        2.77211984179531        0.75440030860505
H           -4.13662072511293        2.07868639960116       -1.32404776672543
H           -1.75936975278730       -1.61819105150203        1.29353857033733
H            2.57844967708336       -0.67830411288894        3.16618090585918
H            4.29814433773172        0.65604928412462        3.34253221964441
H            6.68914192740413        1.24529067327878        3.30567577467658
H            8.47241094655952        1.46960405414357        0.26840687200094
H            6.35398052347680        0.78338490552317       -1.92288482549732
H            4.32713720256404        0.34317093142120       -0.92558977039001
H            0.82292307551789        0.80879178274957       -2.13573335697706
H           -1.10785016749653        0.78997564040897       -3.34779307542239
H           -2.82488424603948       -3.14050799920765       -1.13841543978852
H           -5.16478139057509       -3.79054642231381       -1.64463629739778
