51
 energy: -99.225528846505 gnorm: 0.000658972618 xtb: 6.7.1 (edcfbbe)
N            0.82601548473782       -4.45204729986889        6.72362139729217
C            1.08876523658755       -4.31374632262377        5.61627439626265
C            1.42662333459296       -4.10768005474753        4.25559066129260
C            1.55295690294609       -2.81225714336031        3.85891861514113
C            1.83128987848297       -2.20487346440642        2.59546179213502
C            1.87704924764698       -0.82582476631990        2.49895221071825
S            2.19453892136009       -0.26885355744292        0.92524006380600
C            2.27358168053523       -1.91320534271028        0.32480878399531
C            2.57440229140573       -2.21366684524421       -1.04482216537547
S            3.30044055488842       -3.74864466815670       -1.42376027022225
C            3.39876538927783       -3.33242516769804       -3.08643483722920
C            2.91079311058889       -2.09286333399137       -3.33800413250534
C            2.42811673191010       -1.44033609409241       -2.17714458200467
C            1.78742719717551       -0.12284310939394       -2.20418257267588
C            0.55893463497065        0.08036730324414       -1.60941748423342
C           -0.06568368641169        1.32847489341960       -1.60796667979306
C           -1.35012722483279        1.51582695078245       -0.91725329754528
O           -1.91089194469267        0.60922588530546       -0.32563912766147
C           -1.85617984288343        2.89691243870219       -0.99676911734958
C           -3.10978740120124        3.25891898436642       -0.32267825263599
C           -3.23388086641639        4.48250636470161        0.33637005236695
C           -4.40275672585849        4.82743719376649        0.97951296725926
C           -5.48270791922261        3.94834851659565        0.98024726272828
O           -6.61817486083087        4.32297780631794        1.62594887441607
C           -5.36686160666455        2.72566475418380        0.33002165222708
C           -4.19264538309217        2.38434402036953       -0.31210192935798
C           -1.14772371945723        3.82464718976260       -1.67546674886643
O            0.02429176196935        3.63045901121995       -2.29924267922387
C            0.56849203896979        2.39257672565769       -2.25459868250478
C            1.79834499505957        2.20236774894487       -2.88084770545214
C            2.41042204105989        0.96235565028176       -2.85784155327789
O            3.61474087778373        0.75783286582492       -3.43667320049920
C            2.07247121558883       -2.81001666075703        1.33110175220796
C            1.59553333467273       -5.36035867902557        3.48808853089925
O            2.12659148503288       -5.49922065194320        2.41451049926876
O            1.09059904358971       -6.40129102172267        4.16599127219851
H            1.38891689822402       -2.08342106542522        4.64852000037987
H            1.72316853138231       -0.11645779908277        3.28912039108233
H            3.81117825044615       -4.03650940710691       -3.78129292382064
H            2.87621590602690       -1.64829494625666       -4.31532099160942
H            0.04343847488027       -0.73487259308523       -1.12409671067025
H           -2.39491522920510        5.16183849311555        0.36547339529250
H           -4.50040297763024        5.76922822430837        1.49565182740875
H           -7.27417475656161        3.61753817601950        1.56987901129340
H           -6.20144387710633        2.03676290298819        0.32969868002282
H           -4.11655577475116        1.43094386035161       -0.80863208790740
H           -1.48473261914591        4.84599533437989       -1.78933619895017
H            2.26684206924102        3.04203448866813       -3.37418589883797
H            3.94373801299550        1.58000765692220       -3.82120473876537
H            2.09924616880786       -3.87226038991975        1.17892728978250
H            1.22571671313130       -7.22362705581726        3.66972718947004
