49
 energy: -100.618855327644 gnorm: 0.000388909557 xtb: 6.7.1 (edcfbbe)
N           -3.33809472246365        1.29546882781432       -3.98989959998348
C           -3.67508827940270        0.90509409962808       -2.96618764800468
C           -4.06369507720784        0.43500709602240       -1.69223553859057
C           -3.37255001286428        0.82061577415834       -0.60092819888423
C           -3.72181016648051        0.54072013368793        0.77473373705738
C           -2.75849847330876        0.40038054388934        1.76764378570472
C           -1.33705893264172        0.35945493076764        1.39432701307449
C           -0.91167333745718       -0.45023007622885        0.36105780720046
C            0.43025127997328       -0.51368459146073       -0.01900022619064
C            0.88486531384448       -1.36978310738699       -1.09718989613109
O            0.17901621053069       -2.11370721885721       -1.77696537116599
C            2.32266200633500       -1.31543042985861       -1.36925410790553
O            2.70191046180176       -2.12594951961148       -2.38011472596692
C            3.16625208407955       -0.51210824901385       -0.65507058306628
C            4.60687413565796       -0.37055697362508       -0.83746895757148
C            5.30762768650742        0.57925920174350       -0.08810303472819
C            6.66878278195887        0.73678481322714       -0.23614769157821
C            7.37216634453681       -0.05484746650795       -1.13893845611861
O            8.71011646756036        0.06404375252792       -1.31773709952820
C            6.68358707915583       -1.00567904796677       -1.88953584916750
C            5.32353624535109       -1.16061307371887       -1.74218715423230
O            2.67587059163983        0.27135485470874        0.35154912481991
C            1.37081982146988        0.27118455217134        0.65832711826620
C            0.95318788222716        1.09715796094412        1.70402533007348
C           -0.37654125740152        1.14258809070207        2.07722873207029
O           -0.80028931930482        1.95298873257413        3.07302754944344
C           -3.12197678423282        0.22183253719293        3.12249964577609
C           -4.42338832764851        0.18553053315560        3.53583392273818
C           -5.42845223132118        0.33684612469764        2.56646372377915
N           -6.74967642951993        0.35408408917343        2.75052950704585
S           -7.46752886068566        0.57844490237139        1.33189987260182
N           -6.15368868126791        0.65983588609186        0.41285496954108
C           -5.07697037339570        0.50859783243590        1.18288220083809
C           -5.20169595634214       -0.53112417902790       -1.69563678459290
O           -6.17804443368748       -0.45299047576923       -2.38772390407232
O           -4.95565230616938       -1.57880750837034       -0.89231769167225
H           -2.49551378604565        1.44098781351835       -0.74891099262810
H           -1.61292326256999       -1.07820270879224       -0.16752739216966
H            1.86292718589898       -2.54303445578107       -2.68234952894536
H            4.77645002402540        1.20129979090876        0.61475055554605
H            7.19434294470023        1.47914636476281        0.35034679873418
H            9.06251879261588        0.75812193032795       -0.74678813035470
H            7.23881666128445       -1.61374217723446       -2.58554759977185
H            4.80969790777413       -1.89982770368445       -2.33060646337353
H            1.68905053396760        1.70270082318826        2.21350342693498
H           -0.06051723462197        2.46278744068469        3.42683091052040
H           -2.33058104921085        0.09900120876075        3.84492376294053
H           -4.69368215257153        0.04374498790416        4.56938416656728
H           -5.68573899508575       -2.21475166684113       -0.95058203488839
