31
 energy: -58.854409993449 gnorm: 0.000830395355 xtb: 6.7.1 (edcfbbe)
O            5.26853353949145       -0.87500696221656        1.95203100601967
C            4.30957509841754       -0.66362636427583        1.25256469017693
O            4.39969395678723       -0.64432230743471       -0.08932994050021
C            2.94604661501580       -0.47667719492294        1.76554299793480
C            1.94044066038267        0.21739257127280        1.21103262726517
C            1.94315814607130        1.07295739001889        0.05913005421130
S            3.34530345983217        1.94597668791530       -0.47264621367044
C            2.42375451220187        2.80234033444568       -1.63613842434489
C            1.11478378686636        2.44235062045681       -1.63139835817297
C            0.82173123268832        1.45438860510908       -0.66144276305973
C           -0.50468498696313        0.87176595271746       -0.48085953516946
C           -1.64761824812422        1.68117674519977       -0.56151394572234
C           -2.90640333609580        1.15398447631781       -0.39022202007802
C           -3.05878303170235       -0.20947867842326       -0.13696343608257
O           -4.30998211473834       -0.68814170436823        0.02857118657457
C           -4.56207561380693       -2.01216816286633        0.27738510949997
O           -5.70713286222729       -2.35560174145409        0.41996883112142
C           -3.40546944785277       -2.89594207146041        0.34717411583427
C           -2.15295232379297       -2.43508055072743        0.18496336334217
C           -1.92927672334904       -1.04060896403591       -0.06524408846807
C           -0.66105213346404       -0.48460840985872       -0.24156352952952
H            5.32049666579042       -0.78614602502914       -0.35727804565398
H            2.78433163754370       -0.97155028409861        2.71234787212569
H            0.97757994227505        0.17758033706792        1.71119408796894
H            2.90869327241048        3.52106126376451       -2.26678514656489
H            0.38200833903349        2.84629847991881       -2.30639639798005
H           -1.53283370186590        2.73905079181035       -0.74136469206020
H           -3.78751274497402        1.77297254181256       -0.44392791290838
H           -3.62516507482596       -3.93399717412246        0.53761618101862
H           -1.29683271895831       -3.09263010549156        0.23856125081450
H            0.20164419794941       -1.13371109704714       -0.21500792394096
