56
 energy: -101.421947379801 gnorm: 0.000184413814 xtb: 6.7.1 (edcfbbe)
N            0.07286497429452       -3.24344692584329        4.67535918718557
C           -0.42576700108290       -2.79040367498764        3.74458453432512
C           -0.94275810364988       -2.25084421804739        2.55657827395845
C           -1.79563783007344       -1.20774593057730        2.53796783446963
C           -2.33083865362510       -0.60172279993752        1.34678248570764
C           -2.50100393572653       -1.22977426503318        0.13780299158325
S           -3.07171559639576       -0.18068895162969       -1.07874029102286
C           -3.07912136537353        1.16946025702623        0.03307458707713
C           -3.45114045990700        2.48291651736444       -0.42411203216854
S           -4.54852927941135        3.47466405895343        0.48661779107887
C           -4.49980537988480        4.69364649708541       -0.72482655662587
C           -3.69241957409454        4.36259308262554       -1.76219841120093
C           -3.07647545927292        3.09846263912974       -1.59817897933806
C           -2.09528422907566        2.50065936482232       -2.50787184736304
C           -0.91719395061640        1.97765555090509       -1.99451442665757
C           -0.01877487158534        1.26998695235439       -2.78719235249082
C            1.11410010521194        0.61998275358039       -2.14206542358922
C            1.51371390740300       -0.62373966667239       -2.41891298586397
C            2.46162638170653       -1.35357039865115       -1.55568873791184
O            2.18707000025164       -2.50438286650821       -1.22390764754823
C            3.64450493467684       -0.61157979034976       -1.13653781778371
C            4.26309676932906       -0.58331788300706        0.06172540712253
C            3.92086600787136       -1.18886495165167        1.32985805540294
C            4.30167104039558       -0.49654233244673        2.49026570699466
C            3.92161935959620       -0.92477789859519        3.73891375876631
C            3.15030760712245       -2.08165152128191        3.88225221386355
O            2.77040054550051       -2.43911166198564        5.12230163274224
C            2.83624932122205       -2.82298281234029        2.74365937774118
C            3.22201020709269       -2.38873126653069        1.49304064735111
C           -0.29253229542859        1.14149651490727       -4.14699613874347
C           -1.42097571671716        1.72384719903133       -4.68861259434437
C           -2.33661812079042        2.39473851731745       -3.88451709872644
O           -3.47574963515681        2.93064065906846       -4.39059358207505
C           -2.70288759613360        0.77067545774901        1.27977717193840
C           -0.34391678268815       -2.90421693528048        1.33615626701594
O           -0.41324045412725       -4.08106532116397        1.10836471231768
O            0.30203781723677       -2.01975651523521        0.59493344726576
H           -2.09293862977235       -0.76080316987096        3.47909650151382
H           -2.35835315490778       -2.26735839832425       -0.09073916826711
H           -5.07532075641848        5.58745580921853       -0.58860856529930
H           -3.52365840251583        4.99039973986021       -2.61728344924776
H           -0.71742973247499        2.08433582338052       -0.93794440689736
H            1.56488459001250        1.15174208834867       -1.31294052083647
H            0.99933641496715       -1.21752097817592       -3.16225637889660
H            4.01390290792043        0.06289420200222       -1.89986104338187
H            5.09077273430439        0.11591984890060        0.13855749199250
H            4.87554226244160        0.41486187592378        2.39796782854552
H            4.19657648379057       -0.37687551636607        4.62638889527615
H            2.06794499793438       -3.11167577829116        5.09573724409891
H            2.28666134568488       -3.74871961879259        2.84683095750535
H            3.00005046136252       -2.99558797731204        0.63147954334584
H            0.39287080992605        0.60408239338069       -4.78422922923163
H           -1.61497445740325        1.63929784028060       -5.75006906708409
H           -3.53280726298090        2.74797311416007       -5.33650502719369
H           -2.63927150858380        1.44322736443319        2.11679576805650
H            0.81646120856473       -2.44615709684579       -0.13562753434369
