48
 energy: -93.968368204936 gnorm: 0.000160245734 xtb: 6.7.1 (edcfbbe)
O            6.66250196062679       -2.80140696384313       -1.74735168379749
C            6.13891812454519       -2.65287048884382       -2.82827104780571
O            6.71473593794023       -3.14807216319544       -3.94422791673534
C            4.89424869539413       -1.97508404139016       -3.17132740557346
C            3.95961082394026       -1.39569588325049       -2.39203050802156
C            3.84314068317428       -1.23449888066255       -0.97060883420890
C            4.74034562080385       -1.58833979171053        0.00595746663638
S            4.22213406577678       -1.23901669347966        1.60817289809285
C            2.74562479301231       -0.59285172165102        0.99321659997995
S            1.34764857509947        0.07879614410261        1.73937421648968
C            0.62182620050587        0.29127691498888        0.15587004077136
C           -0.69481005615552        0.90910995339640        0.04340474953914
C           -0.84707453490613        2.01259453371645       -0.79511117841264
C           -2.09164603361661        2.69801896029032       -0.83580872627864
C           -2.36261430239579        3.82798317321995       -1.63264168743535
O           -1.44554391003810        4.34737950862719       -2.49075225462996
C           -3.59825931932927        4.45675144367808       -1.56825048105469
C           -4.58781862890698        3.98686666373639       -0.71674713330700
O           -5.80154556713023        4.58357322133810       -0.63121197373323
C           -4.34929519391672        2.86713710693162        0.07940823756429
C           -3.12425575896356        2.23453870462236        0.01407493253828
O           -2.96006793907439        1.13852780091748        0.78941152113361
C           -1.77075165036737        0.46833967719036        0.80832817100242
C           -1.76561716112807       -0.71557925706915        1.64243410219383
C           -1.08875305047903       -1.86976148088357        1.23923805407119
C           -1.06302252298777       -3.00621473788577        2.02999959743857
O           -0.37228241848309       -4.08939818527365        1.57334204886209
C           -1.74070503285880       -3.01386854736221        3.24286159209270
C           -2.43513746186952       -1.88573102083628        3.64684728587822
C           -2.46188238258817       -0.74019900769931        2.86904634862066
O           -3.10472391119664        0.38325905434956        3.28393345014571
C            1.44135186924322       -0.11077543548078       -0.85464904596753
C            2.66884210299210       -0.64209836923438       -0.38899660459796
H            7.54034400483827       -3.60018277052715       -3.71252643063491
H            4.72600851079229       -1.97335750888503       -4.23981432137581
H            3.11401801508250       -0.97422828317946       -2.92418170307785
H            5.69744489544602       -2.04760013381114       -0.13917622714749
H            0.00985354340618        2.35708166289718       -1.35448793199800
H           -0.62969314282555        3.83516261269931       -2.44893141762105
H           -3.76478323860215        5.31955964963377       -2.19586326289059
H           -5.83661522537451        5.34030805768568       -1.22927365857709
H           -5.11420281459297        2.49755351733811        0.73960501835114
H           -0.58634179938663       -1.89992608338281        0.28660067782893
H           -0.43479935509998       -4.80749023708097        2.21403453565391
H           -1.73129156037284       -3.89528560851811        3.86882828610937
H           -2.96094909278569       -1.89560646345546        4.59262856951317
H           -3.51856974306090        0.22165723425705        4.14013720496130
H            1.15445538586370       -0.06033483702015       -1.89007117060851
