56
 energy: -101.388296302937 gnorm: 0.113532392437 xtb: 6.7.1 (edcfbbe)
N           -2.12779700000000       -1.95737700000000        5.60553600000000
C           -2.17079800000000       -1.77830600000000        4.45693400000000
C           -2.23229100000000       -1.50826500000000        3.05712700000000
C           -3.12094000000000       -0.61232500000000        2.57544100000000
C           -3.38233400000000       -0.22836700000000        1.21858800000000
C           -3.49387600000000       -1.09500600000000        0.15447800000000
S           -3.90338200000000       -0.27826000000000       -1.30140400000000
C           -3.90593600000000        1.25353300000000       -0.52840700000000
C           -4.13914800000000        2.48303900000000       -1.26234700000000
S           -5.39843900000000        3.55592600000000       -0.76970900000000
C           -5.05965600000000        4.66132000000000       -2.03361900000000
C           -3.99624600000000        4.23804100000000       -2.80431600000000
C           -3.44679200000000        2.98968700000000       -2.36094400000000
C           -2.27199700000000        2.32847000000000       -2.92833300000000
C           -1.18908700000000        2.04344500000000       -2.08607300000000
C           -0.07947800000000        1.33854700000000       -2.56111600000000
C            0.97593100000000        1.01509100000000       -1.60145700000000
C            1.20645600000000       -0.25760200000000       -1.22687300000000
C            2.14823200000000       -0.72096200000000       -0.16645900000000
O            2.34523100000000       -1.93307600000000       -0.05346200000000
C            2.74000200000000        0.28909200000000        0.75490000000000
C            3.71355800000000        0.07775800000000        1.65485400000000
C            4.44984500000000       -1.16557700000000        1.91104400000000
C            4.34093400000000       -1.77944600000000        3.16757400000000
C            5.07202000000000       -2.93789300000000        3.45247000000000
C            5.89641500000000       -3.48704300000000        2.47417100000000
O            6.56355200000000       -4.63384000000000        2.78766200000000
C            6.03277100000000       -2.87906000000000        1.22169400000000
C            5.30461300000000       -1.71691100000000        0.94681600000000
C           -0.02557700000000        0.95491200000000       -3.90463800000000
C           -1.08267700000000        1.26577600000000       -4.76340000000000
C           -2.19862100000000        1.95043500000000       -4.27527200000000
O           -3.23017000000000        2.24640100000000       -5.12721000000000
C           -3.65432200000000        1.12368600000000        0.82654300000000
C           -1.25445300000000       -2.23191600000000        2.22751500000000
O           -1.23962100000000       -3.44801300000000        2.07086000000000
O           -0.28397700000000       -1.42443200000000        1.76740000000000
H           -3.74774300000000       -0.09261800000000        3.30754600000000
H           -3.38672100000000       -2.17112900000000        0.13995500000000
H           -5.64224200000000        5.57965300000000       -2.15268800000000
H           -3.61305100000000        4.80747200000000       -3.64099800000000
H           -1.22575800000000        2.34346700000000       -1.03853500000000
H            1.49394100000000        1.87703000000000       -1.18349800000000
H            0.65945200000000       -1.08702000000000       -1.67833100000000
H            2.28868500000000        1.27966500000000        0.73681900000000
H            4.00511700000000        0.89969900000000        2.30505300000000
H            3.69140300000000       -1.37246100000000        3.93078100000000
H            5.00596700000000       -3.39841500000000        4.43542100000000
H            6.98075600000000       -4.97977000000000        1.97725600000000
H            6.68743100000000       -3.29170000000000        0.46385400000000
H            5.41762100000000       -1.23958300000000       -0.02124900000000
H            0.83731900000000        0.41198500000000       -4.29228200000000
H           -1.02468900000000        0.96536800000000       -5.80574900000000
H           -3.07141400000000        1.79079600000000       -5.97065500000000
H           -3.63628900000000        1.97790000000000        1.50245400000000
H            0.37827300000000       -2.04182200000000        1.35961700000000
56
 energy: -101.399247509033 gnorm: 0.039575805965 xtb: 6.7.1 (edcfbbe)
N           -2.12669114626675       -1.95084398228334        5.57328833937934
C           -2.19101367145394       -1.77277424930956        4.44568532594177
C           -2.24656985092162       -1.49977449014069        3.05719034014773
C           -3.12824058865697       -0.59713971875435        2.58326689203576
C           -3.38150099216906       -0.21931768866271        1.21346530620701
C           -3.46493178947190       -1.08194485110993        0.14899604739845
S           -3.85484344872330       -0.27510083653957       -1.31416025296313
C           -3.88264111117181        1.26040292100489       -0.52401960407344
C           -4.12603994021430        2.48969676058305       -1.25369755634062
S           -5.40540738889555        3.54993084621077       -0.76875833363398
C           -5.04202323341871        4.64567647689638       -2.03487814173290
C           -3.99636703486316        4.22057312987992       -2.79783200731486
C           -3.45488567444987        2.98291331515065       -2.35778997930443
C           -2.27437151534261        2.32156523975750       -2.92616988286451
C           -1.19488297454257        2.03454320818940       -2.09454267727735
C           -0.08253632770848        1.33655784725675       -2.55766640832500
C            0.97249947014438        1.00612018053364       -1.58937219012421
C            1.21327145527429       -0.25070580440474       -1.20935809290907
C            2.15541596016237       -0.71582428319378       -0.16160764304276
O            2.34033111290140       -1.91853347933315       -0.02885058253391
C            2.74169323112935        0.28963366871118        0.74583019332614
C            3.70318109541806        0.07038661556025        1.65182320159703
C            4.44363627462080       -1.17181641043281        1.90473821614103
C            4.35407809841309       -1.77534090533042        3.15955034560890
C            5.06833773848750       -2.92835425424080        3.44085484180169
C            5.88941534120653       -3.48662314762965        2.46861924728240
O            6.56258195414838       -4.62992126617253        2.78036025468112
C            6.01538132328699       -2.87402169512903        1.22524393400265
C            5.29178518283234       -1.72467102935188        0.94881316425451
C           -0.03543763034895        0.94883239841743       -3.89247510379678
C           -1.07966144372727        1.26831222386556       -4.74650506699126
C           -2.19839027812465        1.94824313508430       -4.27251824738523
O           -3.23681930478529        2.24022465411685       -5.10953589164506
C           -3.65227753504523        1.12377077623959        0.82026541143080
C           -1.24406824863027       -2.24145807942994        2.24553205469434
O           -1.25791193187294       -3.43318267465728        2.06069244327037
O           -0.28609748436750       -1.44287893049847        1.75664074256777
H           -3.74308769013634       -0.07471523058348        3.31416409152006
H           -3.36739779200338       -2.15220784339769        0.14671473754557
H           -5.61825970263502        5.54861169659822       -2.15332570348319
H           -3.61290898209649        4.77834447202303       -3.63484340476094
H           -1.23494863521139        2.33561616318943       -1.05538586951496
H            1.48888180995138        1.85753818268962       -1.16227468058880
H            0.67567215744481       -1.07002720232312       -1.67566640887378
H            2.29704090609194        1.27611015866985        0.71037188756617
H            3.98417193918138        0.89084739897763        2.30694059772546
H            3.70115320761256       -1.36553784407080        3.91627500857174
H            4.99502941315353       -3.39840468264978        4.41112974783154
H            6.99381548731482       -4.97109917659643        1.98359147060744
H            6.67156865292260       -3.28921129795234        0.47211189011938
H            5.40216134799560       -1.24686443156375       -0.01455976664140
H            0.82418915931443        0.41324637589226       -4.27421535048569
H           -1.02675146682945        0.97088375656494       -5.78646412567128
H           -3.07884373923269        1.81042881245008       -5.96182783012243
H           -3.63515363197271        1.96428995736288        1.49594975702693
H            0.37567286628160       -2.02500588613408        1.32153431211788
56
 energy: -101.402353176534 gnorm: 0.016951842045 xtb: 6.7.1 (edcfbbe)
N           -2.14455022632258       -1.95058901860832        5.55843675046889
C           -2.16650983165199       -1.75453496429144        4.42956037941361
C           -2.25178237592039       -1.48535042652561        3.04638413480525
C           -3.13395101282711       -0.57970913181330        2.58975775609985
C           -3.37812743994679       -0.20880028254691        1.21194597279968
C           -3.41932520909552       -1.06852791199136        0.14491427270613
S           -3.77772542915378       -0.27020440338655       -1.32838891590533
C           -3.85764152526564        1.26834831488439       -0.52023915795161
C           -4.11393055842821        2.49274527339552       -1.24739888635811
S           -5.40148341971803        3.55043526313851       -0.76197025440063
C           -5.03461455099033        4.63140165854621       -2.04281363802115
C           -3.99802162443471        4.20369959524397       -2.80106462141981
C           -3.45785974962323        2.97582645391638       -2.35434774344615
C           -2.27465347461838        2.31317060321101       -2.91997652303926
C           -1.20002050024751        2.02445368263536       -2.09257544690144
C           -0.08528741832348        1.33148901545049       -2.54819835914950
C            0.96816150139255        0.99811121686201       -1.57550780223386
C            1.22371433556553       -0.25183341680696       -1.19797116639689
C            2.15398915866668       -0.71504186630775       -0.14651073899248
O            2.33127583259966       -1.91378138559262        0.00630463040282
C            2.74660014547304        0.29770788777428        0.73599377879700
C            3.69547375623524        0.07073822593116        1.65134171531388
C            4.43406443633780       -1.17204093965126        1.89826759805554
C            4.35544173287457       -1.77306716397335        3.15219961474265
C            5.05882284215651       -2.92409971268984        3.43059404014991
C            5.88112185797358       -3.48761474697944        2.46158040931104
O            6.56077458245619       -4.62533885859836        2.77272888285140
C            5.99504817391215       -2.87265034273148        1.22127727918442
C            5.27207383941369       -1.73099729628629        0.94234062507520
C           -0.04069038438813        0.94278910590806       -3.87956184545868
C           -1.07943070329263        1.26529722302563       -4.73086067888316
C           -2.20112240082926        1.94166837619672       -4.26692985156290
O           -3.24439784099113        2.23605986476545       -5.08963549941642
C           -3.65291483316004        1.12812601977575        0.81877213520649
C           -1.26010160865234       -2.25075451291168        2.22161431747920
O           -1.28040108067404       -3.43548256847730        2.06049924899266
O           -0.29558817824347       -1.46237158295858        1.73733020975353
H           -3.73946296895371       -0.05682986866741        3.32194666870815
H           -3.31464202826049       -2.13468075001122        0.15272315078385
H           -5.60797865346407        5.52668718934531       -2.15659682008933
H           -3.61243118519856        4.74896065565153       -3.64200920192604
H           -1.24576594684837        2.32591529990789       -1.05740973936203
H            1.47398653432865        1.84436940502461       -1.13075472683593
H            0.69101774722398       -1.06412989596991       -1.67662663540783
H            2.30889120092411        1.28296944839780        0.68426636324741
H            3.96148669626985        0.88535170222702        2.31886422862904
H            3.71086719007287       -1.35101021240419        3.90885049822516
H            4.98521460835316       -3.40089901970243        4.39375948358251
H            7.01345181932682       -4.95830457608555        1.98876612590050
H            6.65132339140174       -3.29220446581175        0.47072531390255
H            5.37304272845032       -1.25699524417239       -0.02189080960439
H            0.81494690789450        0.40504730426223       -4.25533000788442
H           -1.03065377354783        0.97303964526764       -5.77109599494622
H           -3.08836136635697        1.83656453052225       -5.95507335928820
H           -3.64823953726608        1.95892919651648        1.49882150062928
H            0.37687881739143       -2.01205859183048        1.29151033966420
56
 energy: -101.403742077352 gnorm: 0.022273762604 xtb: 6.7.1 (edcfbbe)
N           -2.08069644404339       -1.95688989449431        5.54892392036495
C           -2.20478521446322       -1.76389779038064        4.42186265095297
C           -2.25738640863366       -1.47300833070260        3.04389365832782
C           -3.13364126998179       -0.56098584807101        2.59472982540527
C           -3.36314212660342       -0.19756795085637        1.21238407715498
C           -3.35662979213352       -1.05428718906686        0.14155797510653
S           -3.69028292413948       -0.26147499218818       -1.33906174516569
C           -3.83097559901620        1.27856968495415       -0.51758186456992
C           -4.10187757186526        2.49579078308821       -1.24349020001811
S           -5.39190382514632        3.55489416849278       -0.75560100171740
C           -5.03345357556210        4.62388948943021       -2.05274632702021
C           -4.00192884993072        4.19203537303328       -2.81291763969273
C           -3.45742337157970        2.97139022016221       -2.35534935650779
C           -2.27352635333598        2.30701598204992       -2.91547901780719
C           -1.20422242419162        2.01720135524700       -2.08597401191181
C           -0.08970251612296        1.32286949576409       -2.53675504635406
C            0.95908078449203        0.99095077759639       -1.56064269708149
C            1.23085802801669       -0.25823424995739       -1.19032474219273
C            2.15756287404723       -0.71425071204135       -0.13663147927097
O            2.31294551771459       -1.91358937908905        0.04700654682743
C            2.75358937337031        0.30826647570480        0.72872638707378
C            3.68813574694347        0.07469535826082        1.65750300020862
C            4.42203362768237       -1.16935206087813        1.89625848838335
C            4.35349280078997       -1.76962749000652        3.15168262566594
C            5.04954637128934       -2.92337526632093        3.42501517950590
C            5.87076656465294       -3.48924336345580        2.45387829912215
O            6.55745208123027       -4.62025371906135        2.76475334345140
C            5.97181802562559       -2.87484282250496        1.21195435805319
C            5.24579628778665       -1.73669604771265        0.93237097734685
C           -0.04486010088429        0.93193560069524       -3.86750936908127
C           -1.08058484390651        1.25706757383397       -4.72035740304135
C           -2.20311562148826        1.93491849242577       -4.26317445107829
O           -3.24909823423611        2.23343122163762       -5.07534545519506
C           -3.65663640991314        1.13471010796831        0.82206441903569
C           -1.27150465090812       -2.25868564502140        2.21618272153413
O           -1.32299660553982       -3.44122491386253        2.04191243060627
O           -0.30463460037338       -1.47663274721173        1.73026994572930
H           -3.73389949616528       -0.03172034965971        3.32416804574855
H           -3.23426594814199       -2.11815377047811        0.15559600873110
H           -5.61154343960615        5.51493394553651       -2.16426842898946
H           -3.61793624791269        4.72430686447596       -3.66251040691297
H           -1.25586796114124        2.31897746013881       -1.05139665989738
H            1.45025383739093        1.83703169912039       -1.09828114817822
H            0.70637325315192       -1.06898573402004       -1.68118970859204
H            2.32461848974428        1.29540950330185        0.66143351251676
H            3.94745524882480        0.88524694669384        2.33174352004546
H            3.71817017013971       -1.33698336887515        3.91059285287210
H            4.97872279183966       -3.40571923003316        4.38498882030119
H            7.03412617255563       -4.94209651590010        1.99076800750595
H            6.62546547903250       -3.29843816205711        0.46050603760528
H            5.33418467044145       -1.26796297304967       -0.03570478442763
H            0.80965336278874        0.39077150360418       -4.23874629462078
H           -1.03364948358067        0.96760785717503       -5.76151480827042
H           -3.09502819337667        1.86119520087852       -5.95320213242840
H           -3.68214806772945        1.95841021567523        1.51068227710887
H            0.36724961210170       -1.99934383998841        1.25368526773172
56
 energy: -101.405255736285 gnorm: 0.019435249476 xtb: 6.7.1 (edcfbbe)
N           -2.11376250454321       -1.96592900478765        5.54170169745406
C           -2.16123246637084       -1.75291577901505        4.41821156129093
C           -2.24908180021574       -1.46867084271012        3.04129722413001
C           -3.12421468739848       -0.54842903533400        2.60419595533924
C           -3.34307153136467       -0.18739231979264        1.22118278677005
C           -3.28259544206403       -1.03810414011509        0.14437309288580
S           -3.59860834211020       -0.24823479464077       -1.34033129231694
C           -3.80305909588041        1.29151828655388       -0.51018988750141
C           -4.08858273527639        2.49999777339724       -1.23741158583633
S           -5.37857379787846        3.56238090820832       -0.74807973588286
C           -5.03597075935991        4.61982990124482       -2.06317402593760
C           -4.00859785383809        4.18252676842810       -2.82927911361031
C           -3.45588599498513        2.96814866648810       -2.35873303970078
C           -2.27224167431399        2.30239538764569       -2.91262309888742
C           -1.20787166237586        2.01251474326017       -2.07770392052347
C           -0.09555954680006        1.31188814177815       -2.52484921566003
C            0.94690399855321        0.98407526461927       -1.54604865597865
C            1.23784903290448       -0.26720095814482       -1.18758834018830
C            2.15684617944659       -0.71228305655683       -0.12454027783920
O            2.28480259442890       -1.91323744701608        0.09299518957331
C            2.76180676640362        0.32003034067087        0.72420078160725
C            3.68241988885013        0.08064129513276        1.66695895547271
C            4.40838710256518       -1.16583562084583        1.89754835820049
C            4.35120990147917       -1.76494709871292        3.15619065962623
C            5.04207733194606       -2.92379672738746        3.42279698943156
C            5.85854580855512       -3.49074763608118        2.44544268524948
O            6.55230668395294       -4.61477522178100        2.75563432644204
C            5.94476710859030       -2.87995864737743        1.19889273737686
C            5.21403082592308       -1.74305680367023        0.92089767847213
C           -0.04940863085908        0.91695234058239       -3.85590489908505
C           -1.08245381763288        1.24498713652661       -4.71316529264202
C           -2.20399689323038        1.92827832525278       -4.26097747019571
O           -3.25084745554080        2.23131557769840       -5.06597267798724
C           -3.66526777974153        1.14118077325907        0.83390667695650
C           -1.28282045963935       -2.26941541608390        2.19771258796733
O           -1.36386589867421       -3.45297968594992        2.01536255763413
O           -0.31854889741535       -1.49142331323547        1.70518680568131
H           -3.71291587762250       -0.00662213402212        3.33397682158527
H           -3.13016816358955       -2.09970394500074        0.15925831913770
H           -5.62355721788672        5.50744593725745       -2.17553184981097
H           -3.63011814180028        4.70098481901642       -3.69092417224648
H           -1.26442424307222        2.31565880286033       -1.04242751060956
H            1.41696294527727        1.83308944749785       -1.06339690620959
H            0.72744002611443       -1.08021750694208       -1.69284041391749
H            2.34324400203425        1.31068473961016        0.64332102049061
H            3.93903115320504        0.88751345466991        2.34586650266387
H            3.72510980513019       -1.32403739175738        3.91860218126436
H            4.97620606644645       -3.41049871466844        4.38188583609234
H            7.05346527969288       -4.92320268753287        1.98989645541864
H            6.59246690179812       -3.30764792042400        0.44346894612270
H            5.28755425498008       -1.28044333878798       -0.05242263539924
H            0.80552684564019        0.37187207114311       -4.22327426539222
H           -1.03538302492616        0.95551004599996       -5.75499264917696
H           -3.09831208744834        1.88372755261746       -5.95455580930211
H           -3.73259691408424        1.95874045518224        1.53233207918469
H            0.35463789402078       -1.99218276822771        1.20498027231651
56
 energy: -101.406409174681 gnorm: 0.015011522110 xtb: 6.7.1 (edcfbbe)
N           -2.08971415112249       -1.98223032711350        5.54116462744517
C           -2.14344359915100       -1.76238603084396        4.41744456661352
C           -2.24130547035499       -1.47398095781545        3.04024395931597
C           -3.10945720625637       -0.54212245905540        2.60910734481235
C           -3.32350533125850       -0.17771114609014        1.22984467578800
C           -3.22470610007563       -1.01977883480858        0.14919221064039
S           -3.53893365880785       -0.22863057307297       -1.33339906003419
C           -3.78551584037620        1.30581792410014       -0.50275345390901
C           -4.07925436673900        2.50795380458992       -1.23326714777202
S           -5.36737548805847        3.57224401236971       -0.74424195021821
C           -5.04223823523881        4.61989590623677       -2.07312370978819
C           -4.01802211995345        4.17929255666693       -2.84490376033978
C           -3.45516160412968        2.97032816571870       -2.36596301444665
C           -2.27170319740562        2.30422409009616       -2.91590936792374
C           -1.20957824284867        2.01544700283520       -2.07538793944642
C           -0.10103706669324        1.30425228766529       -2.51905843809333
C            0.93532367753085        0.98029563398259       -1.53743088046000
C            1.24295809950262       -0.27263809912300       -1.19228995691601
C            2.13932470795341       -0.70850690259140       -0.10586896083654
O            2.25208278595766       -1.90798284789206        0.12711255214990
C            2.76386962101255        0.32643532780770        0.72825273625931
C            3.68048585255324        0.08503728636936        1.67472670153910
C            4.39698850601594       -1.16527507806224        1.90290128691817
C            4.35047308236806       -1.76163776987974        3.16465093178026
C            5.04209686914342       -2.92317358728930        3.42560784827275
C            5.84828890885908       -3.49052669073835        2.43945816235494
O            6.54748694159178       -4.61048134245874        2.74762810636194
C            5.91949648329348       -2.88729429979947        1.18702130117625
C            5.18599897466342       -1.74936437236529        0.91477163985206
C           -0.05374039716247        0.90260267564653       -3.84919357322331
C           -1.08343779751846        1.23226532906299       -4.71216934203805
C           -2.20154648103076        1.92511711506052       -4.26327098784901
O           -3.24528618485302        2.23085824694253       -5.07044515737700
C           -3.67370139828898        1.14709106968085        0.84473513326029
C           -1.29630785644116       -2.27513091409489        2.17680438583366
O           -1.39128974825397       -3.45730348071597        1.99274854772776
O           -0.32507146459339       -1.50303713897954        1.69562185124761
H           -3.68982128277646        0.00810368899717        3.34040166960460
H           -3.03693879857187       -2.07787321439936        0.15809333506726
H           -5.63819572826230        5.50421931412376       -2.19024462719887
H           -3.64915813920456        4.68890262893779       -3.71660950565974
H           -1.26646279888162        2.32261496306184       -1.04027712855484
H            1.37974105593486        1.83318896965601       -1.03475655464397
H            0.75285643518911       -1.09102373091964       -1.71136048857280
H            2.35611471082653        1.32130615849322        0.64147974165294
H            3.93925247325732        0.88978341523184        2.35518602354682
H            3.73261108166949       -1.31799279151746        3.93208673190593
H            4.98426948233538       -3.40877578878475        4.38687912795858
H            7.05659323464817       -4.91013863570492        1.98382958590639
H            6.55636918283426       -3.31844346241701        0.42404348368416
H            5.24624966144192       -1.29163879780811       -0.06246294085141
H            0.80077195905347        0.35191594912966       -4.21290181196824
H           -1.03355563278839        0.93679622234284       -5.75259883791071
H           -3.09270515562083        1.89041598849299       -5.96006689534333
H           -3.77866256166537        1.95909632365819        1.54825778092819
H            0.34713231674664       -2.00042378261625        1.19199844177144
56
 energy: -101.407673105604 gnorm: 0.016434504156 xtb: 6.7.1 (edcfbbe)
N           -2.04963788173631       -2.00577788874433        5.54271140460618
C           -2.12562749580417       -1.78149549867456        4.41908787527311
C           -2.22854974797024       -1.48607899481239        3.04273457487204
C           -3.08108563060643       -0.53487405318374        2.61451887082368
C           -3.29357877426576       -0.16308300032539        1.24097329992583
C           -3.15249682730574       -0.99051756471371        0.15563411356584
S           -3.46353743523053       -0.19554400549283       -1.32364889378651
C           -3.76747472573165        1.32490017032392       -0.49205292244538
C           -4.07001358892271        2.52017071756990       -1.22870074438146
S           -5.35547272899821        3.58494321421843       -0.74061226576326
C           -5.05463660158987        4.61829076911011       -2.08624018458222
C           -4.03455057444336        4.17484588796794       -2.86362419617329
C           -3.45678874152391        2.97487695974886       -2.37642626107129
C           -2.27316135403035        2.30964235590201       -2.92423864387021
C           -1.21096165708792        2.02670196525750       -2.07892183072815
C           -0.10780072842678        1.30011681739614       -2.51559493723459
C            0.91634374330409        0.97904185359528       -1.52454016652024
C            1.24874731224996       -0.27396095325381       -1.19922210947449
C            2.12481559020398       -0.70154687817034       -0.09288307945489
O            2.19555859628446       -1.90038894013190        0.17245858989447
C            2.76179371931923        0.33024939344824        0.73584395920143
C            3.67305381235964        0.08717135595031        1.68738618946117
C            4.37949581753394       -1.16803299714102        1.91503470075153
C            4.34992804916955       -1.75982106133268        3.17967401627366
C            5.04738240156210       -2.92147309641463        3.43299124302522
C            5.83497890197427       -3.49019835764026        2.43341768651363
O            6.54183651984406       -4.60695526994376        2.73641119935415
C            5.88326007163572       -2.89825110672576        1.17377668808026
C            5.14717116228767       -1.75825416083164        0.91302574553765
C           -0.06051391845942        0.88410125747681       -3.84206189983375
C           -1.08486807914104        1.21443395329245       -4.71262602112252
C           -2.19779235473268        1.92101296800241       -4.26875964740071
O           -3.23471831526478        2.22940802716580       -5.08499592646104
C           -3.67983211562209        1.15456950207877        0.85700851841241
C           -1.30517413177758       -2.28296823547073        2.16032863162116
O           -1.42173470673128       -3.46072601385153        1.95792111983821
O           -0.32678397024655       -1.51831647403738        1.68829902534440
H           -3.65233850151678        0.02289155416743        3.34816166854364
H           -2.92390945454290       -2.04171628551603        0.15389163354451
H           -5.65793542345425        5.49828086079977       -2.21061430742200
H           -3.68067783379978        4.67604043145902       -3.74647788368934
H           -1.26491146661961        2.34290682531942       -1.04594883225540